# Force coefficients
# dragDir         : (1.0000000000e+00 0.0000000000e+00 0.0000000000e+00)
# sideDir         : (0.0000000000e+00 0.0000000000e+00 -1.0000000000e+00)
# liftDir         : (0.0000000000e+00 1.0000000000e+00 0.0000000000e+00)
# rollAxis        : (1.0000000000e+00 0.0000000000e+00 0.0000000000e+00)
# pitchAxis       : (0.0000000000e+00 0.0000000000e+00 -1.0000000000e+00)
# yawAxis         : (0.0000000000e+00 1.0000000000e+00 0.0000000000e+00)
# magUInf         : 8.7964594300e+00
# lRef            : 1.0000000000e+00
# Aref            : 1.0000000000e+00
# CofR            : (0.0000000000e+00 0.0000000000e+00 0.0000000000e+00)
#
# Time            	Cd                	Cs                	Cl                	CmRoll            	CmPitch           	CmYaw             	Cd(f)             	Cd(r)             	Cs(f)             	Cs(r)             	Cl(f)             	Cl(r)             
0.0005            	-5.5251829683e+01	-9.8914803914e-22	-2.1987176940e-01	-1.0588177178e-22	2.1240189360e+01	2.0173005772e-22	-2.7625914842e+01	-2.7625914842e+01	-2.9284396185e-22	-6.9630407729e-22	2.1130253476e+01	-2.1350125245e+01
0.001             	-5.4339853248e-01	2.2978790111e-22	-8.0024875343e-02	1.9834824802e-22	5.7445770842e-01	-4.3870065742e-24	-2.7169926624e-01	-2.7169926624e-01	1.1050694398e-22	1.1928095713e-22	5.3444527075e-01	-6.1447014609e-01
0.0015            	1.0527144170e-01	-5.5475930590e-22	-7.3479648505e-02	-3.1438260725e-22	2.9587618983e-01	-2.0359043270e-24	5.2635720851e-02	5.2635720851e-02	-2.7941555728e-22	-2.7534374862e-22	2.5913636557e-01	-3.3261601408e-01
0.002             	2.9966999401e-01	-1.2061809014e-23	-6.8608719289e-02	1.4137438270e-22	1.9228879307e-01	-3.5810168517e-24	1.4983499700e-01	1.4983499700e-01	-9.6119213589e-24	-2.4498876555e-24	1.5798443343e-01	-2.2659315272e-01
0.0025            	4.5485236863e-01	-1.8076863904e-22	-6.3746662449e-02	-2.3735052223e-22	1.2060765159e-01	5.3371776524e-26	2.2742618431e-01	2.2742618431e-01	-9.0330947742e-23	-9.0437691295e-23	8.8734320370e-02	-1.5248098282e-01
0.003             	5.6538589686e-01	3.9679265603e-22	-5.9123165622e-02	4.1491824669e-22	7.0466558380e-02	1.7936525983e-24	2.8269294843e-01	2.8269294843e-01	2.0018998061e-22	1.9660267542e-22	4.0904975569e-02	-1.0002814119e-01
0.0035            	6.5015705752e-01	2.0207792383e-22	-5.4659539190e-02	-9.0734287787e-24	3.2637522704e-02	3.4283981065e-24	3.2507852876e-01	3.2507852876e-01	1.0446736002e-22	9.7610563811e-23	5.3077531092e-03	-5.9967292299e-02
0.004             	7.1903321707e-01	-3.6269554516e-22	-5.0056854677e-02	-3.8676920771e-22	2.3283160688e-03	-3.9311994153e-24	3.5951660853e-01	3.5951660853e-01	-1.8527897199e-22	-1.7741657316e-22	-2.2700111270e-02	-2.7356743408e-02
0.0045            	7.7627035138e-01	5.4064985134e-22	-4.5589917384e-02	1.3076468874e-22	-2.2499601067e-02	3.0288736914e-23	3.8813517569e-01	3.8813517569e-01	3.0061366259e-22	2.4003618876e-22	-4.5294559760e-02	-2.9535762491e-04
0.005             	8.2507855100e-01	-1.9261771408e-21	-4.1166830575e-02	-9.5319089222e-22	-4.3383988079e-02	-3.7096318125e-23	4.1253927550e-01	4.1253927550e-01	-1.0001848885e-21	-9.2599225227e-22	-6.3967403366e-02	2.2800572791e-02
0.0055            	8.6701798997e-01	-8.1456502368e-22	-3.6795313682e-02	-2.8570997602e-22	-6.1249024802e-02	-2.5773417811e-23	4.3350899498e-01	4.3350899498e-01	-4.3305592965e-22	-3.8150909403e-22	-7.9646681643e-02	4.2851367961e-02
0.006             	9.0479939456e-01	-2.3146217646e-21	-3.2406024815e-02	-5.5628406805e-22	-7.7058482262e-02	-4.3656857242e-23	4.5239969728e-01	4.5239969728e-01	-1.2009677395e-21	-1.1136540251e-21	-9.3261494670e-02	6.0855469855e-02
0.0065            	9.3906363324e-01	4.5751621323e-22	-2.7983016248e-02	-3.9116933123e-22	-9.1245179069e-02	-3.5593633110e-23	4.6953181662e-01	4.6953181662e-01	1.9316447350e-22	2.6435173972e-22	-1.0523668719e-01	7.7253670945e-02
0.007             	9.7062454699e-01	-5.4505005690e-21	-2.3564893463e-02	-1.6108538318e-21	-1.0413414871e-01	-9.2422967684e-23	4.8531227350e-01	4.8531227350e-01	-2.8176732522e-21	-2.6328273168e-21	-1.1591659544e-01	9.2351701981e-02
0.0075            	9.9898041908e-01	9.7471113515e-22	-1.9164818676e-02	5.4296081205e-22	-1.1562959647e-01	2.8236739775e-23	4.9949020954e-01	4.9949020954e-01	5.1559230735e-22	4.5911882780e-22	-1.2521200581e-01	1.0604718713e-01
0.008             	1.0251566487e+00	-2.0383014965e-21	-1.4756441200e-02	-1.2160952233e-21	-1.2614583218e-01	-5.7882370570e-23	5.1257832435e-01	5.1257832435e-01	-1.0770331188e-21	-9.6126837767e-22	-1.3352405278e-01	1.1876761158e-01
0.0085            	1.0494218690e+00	-4.4800851932e-21	-1.0338929091e-02	-1.7748791274e-21	-1.3582846530e-01	-1.0582426349e-22	5.2471093450e-01	5.2471093450e-01	-2.3458668601e-21	-2.1342183331e-21	-1.4099792984e-01	1.3065900075e-01
0.009             	1.0720234545e+00	3.2347342321e-21	-5.9117066403e-03	6.0530058160e-22	-1.4478537982e-01	1.7970479385e-24	5.3601172727e-01	5.3601172727e-01	1.6191641640e-21	1.6155700681e-21	-1.4774123314e-01	1.4182952650e-01
0.0095            	1.0932266155e+00	2.1143777279e-22	-1.4749219814e-03	-1.0231103815e-21	-1.5310880854e-01	-7.3713502534e-23	5.4661330776e-01	5.4661330776e-01	3.2005383859e-23	1.7943238893e-22	-1.5384626953e-01	1.5237134755e-01
0.01              	1.1131438840e+00	2.0888066402e-21	2.9745900426e-03	2.2217128903e-21	-1.6086972154e-01	1.9187627450e-22	5.5657194202e-01	5.5657194202e-01	1.2362795946e-21	8.5252704558e-22	-1.5938242652e-01	1.6235701657e-01
0.0105            	1.1322655208e+00	-4.0418569275e-21	7.4449100785e-03	-1.6398321846e-21	-1.6827772667e-01	-1.1433191873e-22	5.6613276038e-01	5.6613276038e-01	-2.1352603825e-21	-1.9065965450e-21	-1.6455527163e-01	1.7200018171e-01
0.011             	1.1502275312e+00	-8.4568578014e-22	1.1909485578e-02	-1.1778082745e-21	-1.7521062406e-01	-1.0483820199e-22	5.7511376561e-01	5.7511376561e-01	-5.2768109207e-22	-3.1800468808e-22	-1.6925588127e-01	1.8116536685e-01
0.0115            	1.1672588837e+00	1.1228186547e-21	1.6390580956e-02	1.0960276030e-21	-1.8172069880e-01	1.0281516943e-22	5.8362944184e-01	5.8362944184e-01	6.6422449677e-22	4.5859415790e-22	-1.7352540832e-01	1.8991598928e-01
0.012             	1.1835016499e+00	2.0056971944e-21	2.0883983801e-02	-1.0467705125e-22	-1.8789265125e-01	3.7120970826e-24	5.9175082494e-01	5.9175082494e-01	1.0065606943e-21	9.9913650010e-22	-1.7745065935e-01	1.9833464315e-01
0.0125            	1.1989492599e+00	-1.1397042196e-21	2.5383832055e-02	-5.1432765973e-22	-1.9375003398e-01	-6.7014843658e-23	5.9947462996e-01	5.9947462996e-01	-6.3686695347e-22	-5.0283726616e-22	-1.8105811796e-01	2.0644195001e-01
0.013             	1.2137712154e+00	-2.5439423624e-21	2.9895668922e-02	-6.6525546543e-22	-1.9933618787e-01	-5.9901144274e-23	6.0688560769e-01	6.0688560769e-01	-1.3318723255e-21	-1.2120700369e-21	-1.8438835341e-01	2.1428402233e-01
0.0135            	1.2279967291e+00	-2.8057297777e-21	3.4419971112e-02	-2.1245170848e-21	-2.0466077842e-01	-1.7870641666e-22	6.1399836456e-01	6.1399836456e-01	-1.5815713055e-21	-1.2241584722e-21	-1.8745079287e-01	2.2187076398e-01
0.014             	1.2415834725e+00	-1.3015102508e-21	3.8948069639e-02	6.9293126157e-22	-2.0972192378e-01	3.8675621793e-23	6.2079173624e-01	6.2079173624e-01	-6.1207950363e-22	-6.8943074721e-22	-1.9024788896e-01	2.2919595860e-01
0.0145            	1.2548549772e+00	4.2095301200e-21	4.3501994931e-02	2.7744789541e-21	-2.1463559206e-01	1.9406121231e-22	6.2742748860e-01	6.2742748860e-01	2.2988262723e-21	1.9107038477e-21	-1.9288459459e-01	2.3638658952e-01
0.015             	1.2674420113e+00	2.0668771620e-21	4.8051496789e-02	1.0407221395e-21	-2.1929879039e-01	6.3627795995e-23	6.3372100563e-01	6.3372100563e-01	1.0970663770e-21	9.6981078503e-22	-1.9527304200e-01	2.4332453879e-01
0.0155            	1.2796613545e+00	8.7785207609e-21	5.2610646548e-02	3.6841842412e-21	-2.2377791828e-01	3.3513888514e-22	6.3983067724e-01	6.3983067724e-01	4.7243992656e-21	4.0541214953e-21	-1.9747259501e-01	2.5008324155e-01
0.016             	1.2914663941e+00	-5.3122278154e-21	5.7179544042e-02	-1.3869335404e-21	-2.2808555906e-01	-1.3338516419e-22	6.4573319705e-01	6.4573319705e-01	-2.7894990719e-21	-2.5227287435e-21	-1.9949578704e-01	2.5667533109e-01
0.0165            	1.3027491383e+00	1.9361984439e-21	6.1746044490e-02	1.0271979075e-21	-2.3220374801e-01	1.5183956951e-22	6.5137456914e-01	6.5137456914e-01	1.1199387915e-21	8.1625965246e-22	-2.0133072577e-01	2.6307677026e-01
0.017             	1.3138828731e+00	-6.0911491173e-21	6.6339332967e-02	-2.0183875189e-21	-2.3623504876e-01	-1.8960565872e-22	6.5694143653e-01	6.5694143653e-01	-3.2351802174e-21	-2.8559688999e-21	-2.0306538228e-01	2.6940471524e-01
0.0175            	1.3244798124e+00	-1.3597019591e-21	7.0923854979e-02	-5.8661107969e-22	-2.4006238482e-01	-1.2473163302e-23	6.6223990621e-01	6.6223990621e-01	-6.9232414286e-22	-6.6737781625e-22	-2.0460045734e-01	2.7552431231e-01
0.018             	1.3347391044e+00	-3.8643178910e-21	7.5512257797e-02	-2.0415672646e-21	-2.4374819280e-01	-1.3950468734e-22	6.6736955221e-01	6.6736955221e-01	-2.0716636328e-21	-1.7926542582e-21	-2.0599206390e-01	2.8150432170e-01
0.0185            	1.3448719951e+00	3.5183802678e-23	8.0122802489e-02	-9.6096315674e-22	-2.4736399808e-01	-6.8162718479e-23	6.7243599757e-01	6.7243599757e-01	-5.0570817140e-23	8.5754619818e-23	-2.0730259684e-01	2.8742539932e-01
0.019             	1.3544402570e+00	-1.1505853096e-21	8.4719009105e-02	-8.7408003974e-22	-2.5078851186e-01	-1.1689848802e-22	6.7722012848e-01	6.7722012848e-01	-6.9219114282e-22	-4.5839416678e-22	-2.0842900731e-01	2.9314801642e-01
0.0195            	1.3639004696e+00	-9.0607446953e-22	8.9332534096e-02	1.0497263287e-21	-2.5413154235e-01	1.5825940544e-22	6.8195023480e-01	6.8195023480e-01	-2.9477782933e-22	-6.1129664020e-22	-2.0946527530e-01	2.9879780940e-01
0.02              	1.3730923495e+00	-2.4395453695e-21	9.3951015688e-02	8.3466418511e-22	-2.5736121062e-01	5.0855013575e-23	6.8654617473e-01	6.8654617473e-01	-1.1689176712e-21	-1.2706276983e-21	-2.1038570278e-01	3.0433671847e-01
0.0205            	1.3818377359e+00	-9.2076932201e-21	9.8554299651e-02	-2.5434539066e-21	-2.6044585478e-01	-2.8004009623e-22	6.9091886795e-01	6.9091886795e-01	-4.8838867063e-21	-4.3238065138e-21	-2.1116870495e-01	3.0972300460e-01
0.021             	1.3921667620e+00	4.5141209011e-22	1.0332573814e-01	1.7565341857e-21	-2.6398294085e-01	1.6779417894e-22	6.9608338102e-01	6.9608338102e-01	3.9350022400e-22	5.7911866113e-23	-2.1232007177e-01	3.1564580992e-01
0.0215            	1.3991802348e+00	-2.8761990735e-21	1.0780366188e-01	5.8254001025e-22	-2.6645263477e-01	6.1749659425e-23	6.9959011738e-01	6.9959011738e-01	-1.3763498773e-21	-1.4998491962e-21	-2.1255080383e-01	3.2035446571e-01
0.022             	1.4072808385e+00	2.5363875054e-21	1.1243115833e-01	2.5725319910e-21	-2.6926096997e-01	3.5526756172e-22	7.0364041925e-01	7.0364041925e-01	1.6234613144e-21	9.1292619100e-22	-2.1304539081e-01	3.2547654913e-01
0.0225            	1.4153605953e+00	-3.1864534602e-21	1.1708220504e-01	-2.3290291161e-21	-2.7203456911e-01	-3.0704227588e-22	7.0768029763e-01	7.0768029763e-01	-1.9002690060e-21	-1.2861844542e-21	-2.1349346659e-01	3.3057567163e-01
0.023             	1.4228894837e+00	-5.4677113687e-21	1.2169183627e-01	-2.3082392580e-21	-2.7462447350e-01	-2.3708797283e-22	7.1144474185e-01	7.1144474185e-01	-2.9709436572e-21	-2.4967677115e-21	-2.1377855537e-01	3.3547039164e-01
0.0235            	1.4304745013e+00	-3.1084365162e-21	1.2633198968e-01	-2.6562202312e-21	-2.7718991281e-01	-3.4134733566e-22	7.1523725067e-01	7.1523725067e-01	-1.8955655938e-21	-1.2128709225e-21	-2.1402391797e-01	3.4035590765e-01
0.024             	1.4378522267e+00	-4.2215407334e-21	1.3097020827e-01	9.2204139161e-22	-2.7966758281e-01	5.4726891074e-23	7.1892611335e-01	7.1892611335e-01	-2.0560434756e-21	-2.1654972578e-21	-2.1418247867e-01	3.4515268695e-01
0.0245            	1.4448200288e+00	-1.0826636829e-21	1.3558256854e-01	3.7670026784e-22	-2.8202130698e-01	6.7354892312e-23	7.2241001438e-01	7.2241001438e-01	-4.7397694911e-22	-6.0868673374e-22	-2.1423002271e-01	3.4981259125e-01
0.025             	1.4519276794e+00	3.2065492407e-21	1.4023338155e-01	9.5432581504e-22	-2.8437879550e-01	1.3740511595e-22	7.2596383969e-01	7.2596383969e-01	1.7406797363e-21	1.4658695044e-21	-2.1426210472e-01	3.5449548627e-01
0.0255            	1.4586315144e+00	-1.4843588874e-21	1.4485579184e-01	-5.2034580531e-22	-2.8659429448e-01	-4.7823601032e-23	7.2931575720e-01	7.2931575720e-01	-7.9000304472e-22	-6.9435584265e-22	-2.1416639856e-01	3.5902219040e-01
0.026             	1.4651712877e+00	4.5732648984e-21	1.4947678382e-01	1.1715621891e-21	-2.8873797381e-01	2.0099265328e-23	7.3258564384e-01	7.3258564384e-01	2.3067317145e-21	2.2665331839e-21	-2.1399958191e-01	3.6347636572e-01
0.0265            	1.4717738093e+00	7.2132908087e-22	1.5412752330e-01	4.7967540177e-22	-2.9087780533e-01	1.1020026741e-22	7.3588690467e-01	7.3588690467e-01	4.7086480785e-22	2.5046427303e-22	-2.1381404368e-01	3.6794156697e-01
0.027             	1.4778629765e+00	1.5600713528e-22	1.5872931167e-01	-1.0567661519e-21	-2.9285898791e-01	-1.1772891715e-22	7.3893148823e-01	7.3893148823e-01	-3.9725349511e-23	1.9573248479e-22	-2.1349433207e-01	3.7222364374e-01
0.0275            	1.4840624850e+00	2.1144179661e-21	1.6336231757e-01	-4.2587441382e-22	-2.9482919509e-01	-3.7379527866e-23	7.4203124250e-01	7.4203124250e-01	1.0198294552e-21	1.0945885109e-21	-2.1314803630e-01	3.7651035387e-01
0.028             	1.4910315586e+00	1.3891396220e-20	1.6808845523e-01	6.8478721478e-22	-2.9704692525e-01	-1.4646927553e-22	7.4551577930e-01	7.4551577930e-01	6.7992288343e-21	7.0921673854e-21	-2.1300269763e-01	3.8109115286e-01
0.0285            	1.4972895551e+00	4.7617008319e-21	1.7274862591e-01	1.9649119665e-22	-2.9898516953e-01	-1.5053748637e-22	7.4864477753e-01	7.4864477753e-01	2.2303129296e-21	2.5313879023e-21	-2.1261085657e-01	3.8535948249e-01
0.029             	1.5029909713e+00	-2.6155683769e-23	1.7732216408e-01	1.1508933538e-21	-3.0075383955e-01	-2.4662087855e-23	7.5149548566e-01	7.5149548566e-01	-3.7739929739e-23	1.1584245970e-23	-2.1209275751e-01	3.8941492160e-01
0.0295            	1.5085384739e+00	-7.2936901941e-21	1.8190677398e-01	-6.4038436957e-22	-3.0244580357e-01	4.1547374761e-23	7.5426923697e-01	7.5426923697e-01	-3.6052977223e-21	-3.6883924718e-21	-2.1149241658e-01	3.9339919056e-01
0.03              	1.5139113866e+00	1.1976748592e-20	1.8648365536e-01	2.9150567210e-21	-3.0406521851e-01	1.0102698420e-22	7.5695569329e-01	7.5695569329e-01	6.0894012802e-21	5.8873473118e-21	-2.1082339083e-01	3.9730704619e-01
0.0305            	1.5194174871e+00	9.8152701233e-22	1.9109670179e-01	4.8467511978e-22	-3.0570017133e-01	-5.2387127844e-23	7.5970874353e-01	7.5970874353e-01	4.3837637832e-22	5.4315063401e-22	-2.1015182043e-01	4.0124852222e-01
0.031             	1.5243667386e+00	1.9174331963e-21	1.9564346221e-01	1.4547064642e-21	-3.0716926445e-01	2.1159680250e-22	7.6218336930e-01	7.6218336930e-01	1.1703134007e-21	7.4711979566e-22	-2.0934753334e-01	4.0499099555e-01
0.0315            	1.5295052199e+00	5.9338522191e-21	2.0023349798e-01	1.7884331755e-21	-3.0864812503e-01	4.7322005017e-23	7.6475260995e-01	7.6475260995e-01	3.0142481145e-21	2.9196041045e-21	-2.0853137605e-01	4.0876487402e-01
0.032             	1.5345321687e+00	1.3898262925e-21	2.0482067939e-01	4.8163708654e-21	-3.1007276168e-01	8.0013366049e-22	7.6726608437e-01	7.6726608437e-01	1.4950468067e-21	-1.0522051426e-22	-2.0766242198e-01	4.1248310137e-01
0.0325            	1.5390848717e+00	-5.2036035914e-22	2.0934889858e-01	-1.0740333756e-21	-3.1136091911e-01	-3.0122795519e-22	7.6954243583e-01	7.6954243583e-01	-5.6140813476e-22	4.1047775615e-23	-2.0668646982e-01	4.1603536840e-01
0.033             	1.5439496204e+00	-5.3967884163e-22	2.1394000725e-01	1.6684857904e-21	-3.1270133251e-01	2.3518436130e-22	7.7197481021e-01	7.7197481021e-01	-3.4655059515e-23	-5.0502378211e-22	-2.0573132889e-01	4.1967133614e-01
0.0335            	1.5484301953e+00	1.2475483707e-21	2.1848273003e-01	2.3833214726e-21	-3.1390930711e-01	4.5477391047e-22	7.7421509767e-01	7.7421509767e-01	1.0785480958e-21	1.6900027489e-22	-2.0466794210e-01	4.2315067212e-01
0.034             	1.5527776690e+00	4.9441951088e-21	2.2301455916e-01	5.8709191649e-21	-3.1505672197e-01	7.2398097173e-22	7.7638883449e-01	7.7638883449e-01	3.1960785261e-21	1.7481165827e-21	-2.0354944239e-01	4.2656400155e-01
0.0345            	1.5572940683e+00	-4.5866848374e-21	2.2758578710e-01	-3.4077061528e-23	-3.1623017739e-01	2.1773291413e-22	7.7864703413e-01	7.7864703413e-01	-2.0756095046e-21	-2.5110753328e-21	-2.0243728385e-01	4.3002307094e-01
0.035             	1.5612473953e+00	-3.4083445943e-21	2.3207328265e-01	9.4430234558e-22	-3.1723666330e-01	1.5906372974e-22	7.8062369764e-01	7.8062369764e-01	-1.5451085674e-21	-1.8632360269e-21	-2.0120002198e-01	4.3327330463e-01
0.0355            	1.5654606831e+00	-1.2751259870e-21	2.3661497287e-01	1.8127014211e-21	-3.1827279369e-01	2.7857090687e-22	7.8273034154e-01	7.8273034154e-01	-3.5899208665e-22	-9.1613390039e-22	-1.9996530726e-01	4.3658028012e-01
0.036             	1.5695483977e+00	-1.0529038260e-21	2.4114362428e-01	-8.2951763264e-23	-3.1924857861e-01	-9.7320310119e-23	7.8477419886e-01	7.8477419886e-01	-6.2377222311e-22	-4.2913160287e-22	-1.9867676646e-01	4.3982039075e-01
0.0365            	1.5733930315e+00	-1.2729595673e-20	2.4563687607e-01	-3.4201392494e-21	-3.2014890889e-01	-2.1720036519e-22	7.8669651574e-01	7.8669651574e-01	-6.5819982016e-21	-6.1475974712e-21	-1.9733047085e-01	4.4296734692e-01
0.037             	1.5773721157e+00	4.3559267333e-21	2.5016671772e-01	-2.2608298443e-21	-3.2105590328e-01	-4.9693645222e-22	7.8868605785e-01	7.8868605785e-01	1.6810269144e-21	2.6748998189e-21	-1.9597254441e-01	4.4613926214e-01
0.0375            	1.5809726734e+00	1.9936390470e-21	2.5463664248e-01	-2.5382548638e-22	-3.2183314705e-01	-3.0058107807e-22	7.9048633670e-01	7.9048633670e-01	6.9623844544e-22	1.2974006016e-21	-1.9451482581e-01	4.4915146829e-01
0.038             	1.5844614037e+00	-2.1670845982e-21	2.5909463065e-01	7.0820554346e-22	-3.2255565998e-01	2.5339980592e-22	7.9223070186e-01	7.9223070186e-01	-8.3014249321e-22	-1.3369421050e-21	-1.9300834466e-01	4.5210297531e-01
0.0385            	1.5881675444e+00	-3.4547041646e-22	2.6360067774e-01	-1.5601215279e-21	-3.2331593920e-01	-3.3959648899e-22	7.9408377222e-01	7.9408377222e-01	-5.1233169723e-22	1.6686128076e-22	-1.9151560033e-01	4.5511627807e-01
0.039             	1.5912556561e+00	6.1141210325e-21	2.6799697917e-01	1.0288325958e-21	-3.2389620120e-01	-4.4272382901e-22	7.9562782803e-01	7.9562782803e-01	2.6143366872e-21	3.4997843453e-21	-1.8989771162e-01	4.5789469079e-01
0.0395            	1.5946881889e+00	-1.4816706303e-20	2.7246450919e-01	2.1206804516e-21	-3.2452366938e-01	8.7786873363e-22	7.9734409446e-01	7.9734409446e-01	-6.5304844179e-21	-8.2862218852e-21	-1.8829141479e-01	4.6075592398e-01
0.04              	1.5980410280e+00	-1.2514546126e-21	2.7692531446e-01	-2.5532799264e-21	-3.2510541723e-01	-5.7998502859e-22	7.9902051401e-01	7.9902051401e-01	-1.2057123349e-21	-4.5742277722e-23	-1.8664276000e-01	4.6356807446e-01
0.0405            	1.6008812071e+00	-8.7486637788e-22	2.8128984641e-01	1.5556938342e-21	-3.2554630772e-01	3.4301382179e-22	8.0044060356e-01	8.0044060356e-01	-9.4419367147e-23	-7.8044701073e-22	-1.8490138451e-01	4.6619123092e-01
0.041             	1.6041512780e+00	-9.5889439853e-21	2.8574546240e-01	-4.1710864898e-21	-3.2606431598e-01	-6.0804014410e-22	8.0207563899e-01	8.0207563899e-01	-5.4025121368e-21	-4.1864318485e-21	-1.8319158478e-01	4.6893704718e-01
0.0415            	1.6070282452e+00	-1.0689270493e-22	2.9012747480e-01	-2.6596680851e-22	-3.2644908226e-01	7.4706609894e-23	8.0351412259e-01	8.0351412259e-01	2.1260257429e-23	-1.2815296236e-22	-1.8138534486e-01	4.7151281966e-01
0.042             	1.6098335947e+00	-5.2744101653e-22	2.9449954737e-01	-3.9131972623e-22	-3.2678938102e-01	-1.9346897198e-22	8.0491679737e-01	8.0491679737e-01	-4.5718948024e-22	-7.0251536289e-23	-1.7953960733e-01	4.7403915470e-01
0.0425            	1.6128772271e+00	-1.3419858492e-21	2.9892532950e-01	2.0770646770e-22	-3.2716939956e-01	-5.1913466624e-24	8.0643861357e-01	8.0643861357e-01	-6.7618427125e-22	-6.6580157793e-22	-1.7770673481e-01	4.7663206431e-01
0.043             	1.6152975714e+00	-2.9633814329e-21	3.0322680251e-01	-7.2607538739e-22	-3.2737205376e-01	-2.9582167761e-22	8.0764878570e-01	8.0764878570e-01	-1.7775123941e-21	-1.1858690388e-21	-1.7575865251e-01	4.7898545502e-01
0.0435            	1.6180772839e+00	-6.5713604391e-22	3.0761210843e-01	-2.9154726357e-21	-3.2762454388e-01	-6.4152880264e-22	8.0903864193e-01	8.0903864193e-01	-9.7009682459e-22	3.1296078068e-22	-1.7381848966e-01	4.8143059809e-01
0.044             	1.6208193440e+00	4.9927061835e-21	3.1198495802e-01	-1.8850662296e-21	-3.2784050528e-01	-5.5386062753e-22	8.1040967202e-01	8.1040967202e-01	1.9424924642e-21	3.0502137193e-21	-1.7184802627e-01	4.8383298429e-01
0.0445            	1.6229951422e+00	-1.6401999125e-20	3.1624073152e-01	-2.4805738784e-21	-3.2790051275e-01	3.7844073955e-22	8.1149757111e-01	8.1149757111e-01	-7.8225588231e-21	-8.5794403022e-21	-1.6978014699e-01	4.8602087850e-01
0.045             	1.6256626867e+00	7.9718624571e-21	3.2060670276e-01	9.3442922123e-22	-3.2805298025e-01	-1.8713050667e-22	8.1283134335e-01	8.1283134335e-01	3.7988007219e-21	4.1730617352e-21	-1.6774962887e-01	4.8835633163e-01
0.0455            	1.6279344421e+00	5.4676725186e-21	3.2488788257e-01	-2.1308145730e-23	-3.2807258165e-01	-5.2809255106e-22	8.1396722105e-01	8.1396722105e-01	2.2057437083e-21	3.2619288104e-21	-1.6562864036e-01	4.9051652294e-01
0.046             	1.6303950161e+00	-1.6340873610e-21	3.2921097528e-01	4.9232339221e-22	-3.2811032740e-01	7.2459383970e-22	8.1519750805e-01	8.1519750805e-01	-9.2449840797e-23	-1.5416375202e-21	-1.6350483976e-01	4.9271581504e-01
0.0465            	1.6328391480e+00	-1.3924056171e-21	3.3353540744e-01	-7.4809952238e-23	-3.2812478366e-01	6.7590188464e-25	8.1641957399e-01	8.1641957399e-01	-6.9552690666e-22	-6.9687871043e-22	-1.6135707994e-01	4.9489248739e-01
0.047             	1.6346252597e+00	-1.0784497090e-21	3.3771197234e-01	-1.7339482000e-21	-3.2795360071e-01	-2.0135804772e-22	8.1731262986e-01	8.1731262986e-01	-7.4058290223e-22	-3.3786680679e-22	-1.5909761454e-01	4.9680958688e-01
0.0475            	1.6368408470e+00	3.9918905360e-21	3.4198778211e-01	2.6720325717e-21	-3.2784805403e-01	3.5451525694e-22	8.1842042351e-01	8.1842042351e-01	2.3504605249e-21	1.6414300110e-21	-1.5685416298e-01	4.9884194508e-01
0.048             	1.6390019085e+00	-1.1379921807e-20	3.4625189438e-01	-9.5123948532e-24	-3.2770161420e-01	7.2673617769e-22	8.1950095426e-01	8.1950095426e-01	-4.9632247260e-21	-6.4166970814e-21	-1.5457566701e-01	5.0082756139e-01
0.0485            	1.6405802762e+00	4.3454970971e-21	3.5037956973e-01	8.0017892130e-22	-3.2739644522e-01	1.2099487464e-22	8.2029013809e-01	8.2029013809e-01	2.2937434232e-21	2.0517536739e-21	-1.5220666035e-01	5.0258623009e-01
0.049             	1.6427032902e+00	-9.3501781683e-21	3.5463629059e-01	-7.2422222076e-22	-3.2719517065e-01	4.8925958719e-22	8.2135164509e-01	8.2135164509e-01	-4.1858294969e-21	-5.1643486713e-21	-1.4987702535e-01	5.0451331594e-01
0.0495            	1.6444460681e+00	-1.4775177813e-21	3.5879957194e-01	1.0445320896e-21	-3.2685882853e-01	4.6819859362e-22	8.2222303407e-01	8.2222303407e-01	-2.7056029703e-22	-1.2069574843e-21	-1.4745904256e-01	5.0625861450e-01
0.05              	1.6461290412e+00	1.6218103083e-21	3.6294765321e-01	2.6215468788e-22	-3.2648157863e-01	-2.9536580145e-22	8.2306452058e-01	8.2306452058e-01	5.1553935270e-22	1.1062709556e-21	-1.4500775203e-01	5.0795540524e-01
0.0505            	1.6481113402e+00	5.1787086839e-21	3.6716650802e-01	-1.6193060567e-21	-3.2615459041e-01	-5.5915609274e-22	8.2405567010e-01	8.2405567010e-01	2.0301982492e-21	3.1485104347e-21	-1.4257133640e-01	5.0973784442e-01
0.051             	1.6493297006e+00	-9.4413467490e-22	3.7120520240e-01	4.6368100841e-22	-3.2563498537e-01	1.2129537684e-22	8.2466485029e-01	8.2466485029e-01	-3.5077196061e-22	-5.9336271429e-22	-1.4003238417e-01	5.1123758657e-01
0.0515            	1.6510111251e+00	-1.3714429757e-21	3.7535271041e-01	-8.6407158632e-23	-3.2517803559e-01	-1.8580516056e-22	8.2550556257e-01	8.2550556257e-01	-8.7152664840e-22	-4.9991632729e-22	-1.3750168039e-01	5.1285439080e-01
0.052             	1.6527656344e+00	-7.5709913931e-21	3.7952176173e-01	-1.2785938006e-22	-3.2471269309e-01	4.9519357975e-22	8.2638281719e-01	8.2638281719e-01	-3.2903021168e-21	-4.2806892763e-21	-1.3495181223e-01	5.1447357396e-01
0.0525            	1.6538604739e+00	-6.5786123738e-21	3.8352046020e-01	7.2012411819e-23	-3.2406848091e-01	5.6250166543e-22	8.2693023695e-01	8.2693023695e-01	-2.7268045215e-21	-3.8518078523e-21	-1.3230825081e-01	5.1582871101e-01
0.053             	1.6555549093e+00	-4.8466167843e-21	3.8767116875e-01	-4.0188348249e-22	-3.2353949562e-01	1.2027093271e-22	8.2777745467e-01	8.2777745467e-01	-2.3030374594e-21	-2.5435793249e-21	-1.2970391125e-01	5.1737508000e-01
0.0535            	1.6568650988e+00	-9.4962029250e-21	3.9171898659e-01	-3.9835991794e-22	-3.2288510275e-01	7.6366799004e-22	8.2843254942e-01	8.2843254942e-01	-3.9844334725e-21	-5.5117694526e-21	-1.2702560945e-01	5.1874459604e-01
0.054             	1.6580668684e+00	1.4767181859e-20	3.9573597861e-01	-3.8852161019e-22	-3.2217111913e-01	-1.5079915518e-21	8.2903343418e-01	8.2903343418e-01	5.8755993777e-21	8.8915824813e-21	-1.2430312983e-01	5.2003910844e-01
0.0545            	1.6595818070e+00	3.2276043502e-21	3.9983648232e-01	-1.9413169177e-21	-3.2152392720e-01	-4.2447464464e-22	8.2979090348e-01	8.2979090348e-01	1.1893275305e-21	2.0382768198e-21	-1.2160568604e-01	5.2144216836e-01
0.055             	1.6603685851e+00	2.3190961886e-21	4.0374040869e-01	-1.3994934590e-21	-3.2067416511e-01	-5.7997931902e-22	8.3018429257e-01	8.3018429257e-01	5.7956877527e-22	1.7395274133e-21	-1.1880396076e-01	5.2254436945e-01
0.0555            	1.6617118957e+00	2.1219630057e-21	4.0778876956e-01	-4.7987181275e-22	-3.1990830249e-01	-3.7936530292e-22	8.3085594783e-01	8.3085594783e-01	6.8161619995e-22	1.4403468058e-21	-1.1601391771e-01	5.2380268727e-01
0.056             	1.6630176496e+00	-8.4323673671e-21	4.1182309428e-01	1.9063201210e-21	-3.1910577861e-01	1.1761543581e-21	8.3150882479e-01	8.3150882479e-01	-3.0400293254e-21	-5.3923380417e-21	-1.1319423147e-01	5.2501732575e-01
0.0565            	1.6636673518e+00	5.9614546012e-21	4.1567451365e-01	5.0701534312e-22	-3.1812957865e-01	-3.3350022007e-22	8.3183367588e-01	8.3183367588e-01	2.6472270805e-21	3.3142275207e-21	-1.1029232183e-01	5.2596683548e-01
0.057             	1.6649722617e+00	-1.4056793036e-20	4.1970292462e-01	-1.2271659926e-21	-3.1727967145e-01	1.0277837123e-21	8.3248613085e-01	8.3248613085e-01	-6.0006128059e-21	-8.0561802304e-21	-1.0742820914e-01	5.2713113376e-01
0.0575            	1.6658462580e+00	1.0118281619e-20	4.2360701260e-01	2.0637638362e-21	-3.1629097268e-01	1.0493043019e-22	8.3292312898e-01	8.3292312898e-01	5.1640712395e-21	4.9542103791e-21	-1.0448746638e-01	5.2809447898e-01
0.058             	1.6666808366e+00	6.2121642117e-21	4.2749586860e-01	2.0707071710e-21	-3.1526425501e-01	-1.9255710271e-22	8.3334041829e-01	8.3334041829e-01	2.9135250031e-21	3.2986392086e-21	-1.0151632071e-01	5.2901218932e-01
0.0585            	1.6681854062e+00	5.2425913152e-21	4.3157111717e-01	1.4255704600e-21	-3.1437404199e-01	-2.1428679171e-22	8.3409270309e-01	8.3409270309e-01	2.4070088659e-21	2.8355824493e-21	-9.8588483403e-02	5.3015960057e-01
0.059             	1.6685045548e+00	5.2401267815e-21	4.3530340225e-01	2.3112224517e-21	-3.1317936608e-01	6.1112248114e-23	8.3425227741e-01	8.3425227741e-01	2.6811756389e-21	2.5589511426e-21	-9.5527664951e-02	5.3083106720e-01
0.0595            	1.6694865551e+00	-4.2345859895e-21	4.3922163215e-01	3.4953680488e-21	-3.1210171647e-01	1.5478575092e-21	8.3474327755e-01	8.3474327755e-01	-5.6943548556e-22	-3.6651505039e-21	-9.2490900395e-02	5.3171253255e-01
0.06              	1.6704322626e+00	4.7109097433e-21	4.4312425011e-01	2.1215477613e-21	-3.1098619641e-01	-2.4684947075e-22	8.3521613131e-01	8.3521613131e-01	2.1086054009e-21	2.6023043424e-21	-8.9424071361e-02	5.3254832147e-01
0.0605            	1.6706896263e+00	-1.0355187825e-20	4.4682079892e-01	-3.7118990680e-21	-3.0969224876e-01	2.7077396204e-22	8.3534481314e-01	8.3534481314e-01	-4.9068199507e-21	-5.4483678748e-21	-8.6281849299e-02	5.3310264822e-01
0.061             	1.6716434708e+00	-3.5240692163e-21	4.5071776559e-01	5.5399157391e-21	-3.0853078143e-01	1.9610339218e-21	8.3582173538e-01	8.3582173538e-01	1.9899931364e-22	-3.7230685300e-21	-8.3171898634e-02	5.3388966422e-01
0.0615            	1.6719998219e+00	-1.3076689859e-20	4.5442638722e-01	-2.4747055417e-21	-3.0719402762e-01	4.1834803049e-22	8.3599991094e-01	8.3599991094e-01	-6.1199968988e-21	-6.9566929598e-21	-7.9980834013e-02	5.3440722123e-01
0.062             	1.6726504663e+00	-3.0771859031e-20	4.5822302506e-01	2.1176538737e-22	-3.0589598759e-01	2.2791246971e-21	8.3632523314e-01	8.3632523314e-01	-1.3106804819e-20	-1.7665054213e-20	-7.6784475056e-02	5.3500750012e-01
0.0625            	1.6735635935e+00	2.6952334353e-20	4.6209300000e-01	1.5846206237e-22	-3.0464016836e-01	-3.2627046409e-21	8.3678179674e-01	8.3678179674e-01	1.0213462536e-20	1.6738871818e-20	-7.3593668358e-02	5.3568666836e-01
0.063             	1.6738827432e+00	-5.8704481113e-20	4.6576315604e-01	-1.7037720651e-21	-3.0321757660e-01	5.6290507119e-21	8.3694137158e-01	8.3694137158e-01	-2.3723189845e-20	-3.4981291268e-20	-7.0335998582e-02	5.3609915462e-01
0.0635            	1.6744165168e+00	5.6735647170e-21	4.6951286171e-01	1.5327115840e-21	-3.0180840689e-01	1.5220143881e-22	8.3720825838e-01	8.3720825838e-01	2.9889837973e-21	2.6845809197e-21	-6.7051976042e-02	5.3656483775e-01